# vtk DataFile Version 3.0
boundary_cells.vtk written by compass/landice/mesh.py
ASCII
DATASET POLYDATA

POINTS 2157 float
800096.0961079285 -2017182.7788886607 0.0
802855.4124858511 -2016726.1743904809 0.0
805140.841084454 -2014842.0119163042 0.0
808073.4190996027 -2013071.2961115988 0.0
811833.7697853917 -2013814.1051989482 0.0
816076.9070000433 -2009425.3719352272 0.0
823150.1366301257 -2008294.6212060454 0.0
829081.7685499887 -2009663.0789396598 0.0
836108.5827612331 -2005462.968936454 0.0
840535.3808143998 -2012936.762523087 0.0
842285.0712161878 -2019372.2303225487 0.0
841038.9585224086 -2026122.1045767744 0.0
839488.3187488124 -2031875.105319398 0.0
835580.7014034737 -2033478.109357489 0.0
831749.0930967911 -2034132.4484786487 0.0
830404.7139954012 -2037273.0291651525 0.0
827500.7314949407 -2037614.0925353447 0.0
825860.9668872664 -2039341.0053519027 0.0
822932.5380403041 -2040347.8979420417 0.0
821844.6024274494 -2043831.9104246572 0.0
821718.984124301 -2047620.0863227933 0.0
820630.9968658775 -2051621.55249834 0.0
815759.5344577665 -2053894.9657560352 0.0
810736.5422555967 -2055278.783195692 0.0
807190.9878214003 -2059877.5946812774 0.0
802452.7888748185 -2063965.9915622086 0.0
797418.9465474803 -2068714.04310883 0.0
798788.159107642 -2075922.1072373507 0.0
800492.9271958261 -2083043.1716983176 0.0
799945.0953411515 -2088796.5596854482 0.0
796816.7156141942 -2094315.609359573 0.0
795704.6792713623 -2102005.513192545 0.0
784420.2549880235 -2101036.38361049 0.0
779109.9858367379 -2106939.5843914365 0.0
773792.1307002673 -2114783.172463446 0.0
778101.5119863598 -2123969.0079989834 0.0
776598.9642616346 -2135661.392934706 0.0
773387.4786133497 -2146101.155833272 0.0
772107.3128781117 -2154180.9319439507 0.0
770788.9576212415 -2160420.958738921 0.0
768639.2733556818 -2166035.8034026874 0.0
765983.1536479226 -2171237.257312309 0.0
764344.7750013286 -2177004.880391317 0.0
762398.6003689533 -2182026.8776827618 0.0
761386.4237683449 -2187561.9245447926 0.0
759905.7504268488 -2194650.7632006267 0.0
751655.6358464379 -2196330.5215987093 0.0
746477.8184781388 -2203256.8642408433 0.0
749485.2526163633 -2209759.688309062 0.0
738985.2668506954 -2210345.0657415898 0.0
729024.5252039618 -2213860.424792427 0.0
719795.8712817354 -2213930.9284327053 0.0
712022.7594298531 -2221282.3602842316 0.0
717840.094493333 -2232674.120807902 0.0
707519.0251244478 -2240834.354803862 0.0
697407.425731738 -2247752.4082465544 0.0
691221.2197141348 -2255633.9945832714 0.0
682310.4364318276 -2258351.144379857 0.0
678936.4777299474 -2263738.36246584 0.0
674727.5439014343 -2266537.6056758226 0.0
673970.9689336908 -2270408.795227573 0.0
669801.2312684341 -2270862.744936174 0.0
667343.5007715505 -2273678.0757344216 0.0
665366.0733752638 -2277361.879781295 0.0
662516.6553690874 -2281655.171867515 0.0
658789.1106022403 -2282506.91624448 0.0
655343.0805774608 -2286109.4173809798 0.0
651655.0004334067 -2289695.4101519254 0.0
647483.8700066102 -2294690.8169354345 0.0
641019.8176197653 -2296998.755289725 0.0
634439.0978838442 -2299073.4992350345 0.0
628271.8363477081 -2299356.872983209 0.0
622812.7271261824 -2298513.0018844446 0.0
617935.0614219274 -2300535.007487119 0.0
617075.6683191423 -2306456.8016783935 0.0
614590.7894702593 -2313887.4093067544 0.0
609966.9109476829 -2322036.250898626 0.0
602123.9777909571 -2317084.559422103 0.0
598123.1042484128 -2313102.665415923 0.0
592883.3021507183 -2312814.4920720197 0.0
587935.2579882283 -2316428.576512627 0.0
585832.9032135641 -2321626.296110029 0.0
582703.2112003573 -2322596.6700721513 0.0
580054.4950536457 -2323308.4705385957 0.0
576060.3261676092 -2324861.313683329 0.0
573102.2557636847 -2325334.509798695 0.0
570242.512832888 -2324575.281737506 0.0
566692.4148776488 -2324692.563316962 0.0
563765.414415591 -2322142.307452842 0.0
559806.0337203156 -2323298.6043061055 0.0
555279.0325301278 -2320936.6705501033 0.0
551478.4584460201 -2323053.5338424514 0.0
546053.0862809976 -2320334.240878394 0.0
540426.4882444531 -2321478.151735747 0.0
535120.9948750682 -2323128.0941894855 0.0
534749.4709151284 -2329036.1774807926 0.0
537595.8185816183 -2332392.346959972 0.0
542294.5461219535 -2331608.7900431063 0.0
544998.778931006 -2336351.4653358515 0.0
541824.5696899568 -2340948.2847666824 0.0
542937.3852459668 -2344903.00341525 0.0
543146.2540596387 -2348141.367465362 0.0
545904.9133417327 -2350112.812481567 0.0
547147.6247704927 -2353820.5206493386 0.0
547099.6011549535 -2357790.5496036005 0.0
546399.2778962656 -2362229.7825115374 0.0
545824.6507127219 -2367089.2455579937 0.0
542774.5956066628 -2371050.634273428 0.0
538491.1858171292 -2373713.4598062397 0.0
534524.5062456658 -2374946.1704489146 0.0
530781.7950921647 -2374607.8875611057 0.0
527841.7825114405 -2376988.655246098 0.0
527439.6692398109 -2380747.4353263886 0.0
524267.6531527989 -2383340.0057066698 0.0
523802.91532187245 -2387051.7353920285 0.0
521728.2148506038 -2390099.870048518 0.0
521413.9346559509 -2393699.9978535916 0.0
517929.90848360205 -2396454.988984833 0.0
514559.2767990424 -2398567.6381936353 0.0
511160.6278964732 -2400629.7856598333 0.0
512165.48911318637 -2404156.3642545925 0.0
512213.7853695565 -2407269.1909579425 0.0
509997.94534617424 -2409446.6767766387 0.0
508877.5685761464 -2412476.025693873 0.0
508252.02929992997 -2416020.700729805 0.0
507486.0989715321 -2419622.8094124007 0.0
505807.77642115165 -2423137.7999898307 0.0
503247.35629135877 -2425734.4772020555 0.0
502807.9260013419 -2429188.2088162154 0.0
505574.8464358162 -2432723.752901896 0.0
508270.0673804272 -2436899.2456625234 0.0
509727.65149308887 -2441865.4045427223 0.0
506398.4341917287 -2445331.2183129247 0.0
506159.83402893745 -2449776.4042308396 0.0
505563.0906709539 -2454171.3600025745 0.0
507616.5894792689 -2458405.1304142782 0.0
504662.97826953203 -2462600.4072055793 0.0
504769.61694488046 -2467752.7225258336 0.0
500225.45553636726 -2469657.1781450063 0.0
496199.22748958354 -2471469.3538773027 0.0
494606.421765448 -2475629.1382720345 0.0
492189.2917145792 -2479499.066279422 0.0
490795.41798011085 -2483514.3890763037 0.0
488329.75760839897 -2485489.0016584503 0.0
488188.4182902561 -2490230.8432557876 0.0
488520.98768787255 -2494404.4311992615 0.0
487822.7053530586 -2498354.767116754 0.0
489691.0935143635 -2502033.7735417825 0.0
490437.1888556577 -2505946.601483272 0.0
490484.3696678529 -2509038.720552219 0.0
490556.4601631302 -2512367.834202234 0.0
486537.79439937556 -2515262.694081746 0.0
484231.62524439045 -2518487.4621146345 0.0
480442.5217136943 -2520485.220289139 0.0
476390.7875125019 -2521695.0742485644 0.0
474674.0383759288 -2525245.2503015306 0.0
471455.04531454324 -2529499.424215147 0.0
476312.7160323602 -2533412.4427381274 0.0
474092.7824261571 -2538522.097720913 0.0
471453.2256519631 -2544474.165566692 0.0
466403.9397993188 -2547074.1147121126 0.0
466178.83948623127 -2553089.5020758472 0.0
465721.2209937438 -2559652.014642129 0.0
460616.84172041167 -2560056.6877932763 0.0
455606.9336634723 -2559559.9250422413 0.0
452223.89263408195 -2562416.029976779 0.0
448478.6871096053 -2559718.791643147 0.0
444522.9624544049 -2561697.2023826293 0.0
442882.45731483196 -2566987.4836262576 0.0
437140.9920099527 -2567190.92940683 0.0
431747.82387635944 -2564937.3223755592 0.0
426247.9604544055 -2569124.933259057 0.0
428174.46091340616 -2577489.1670643766 0.0
422051.4456353349 -2585377.454752557 0.0
411615.0656308648 -2596693.6795484372 0.0
400617.836219438 -2607586.66193308 0.0
386446.59142523777 -2607648.0490524746 0.0
379345.8401662685 -2620618.6569343116 0.0
370582.54262618424 -2604619.2418298568 0.0
358347.3567063593 -2596695.7791064596 0.0
355563.43833449297 -2585515.3948683 0.0
350475.92525486654 -2576607.053617306 0.0
342349.26847795077 -2576696.3792464253 0.0
339363.48019820754 -2582611.22267074 0.0
332377.3492100995 -2582212.6133807176 0.0
329709.8054338735 -2577314.746509123 0.0
324856.60986349307 -2576718.662201546 0.0
321407.0093967623 -2579218.7427072795 0.0
320872.71941567404 -2582267.8262866004 0.0
324133.53311867925 -2585394.7852662737 0.0
326538.18512169644 -2590021.214447227 0.0
326601.09026904136 -2594750.858254916 0.0
326936.6699137197 -2599352.1887649414 0.0
323167.0409336318 -2600466.795330718 0.0
322275.46958833386 -2604215.984902925 0.0
320192.3612794374 -2607040.323801378 0.0
322546.634228677 -2610408.025903196 0.0
321252.38755417377 -2614227.015882449 0.0
321843.6172525119 -2618522.7925602566 0.0
317086.069674911 -2619582.817078702 0.0
313703.3392283961 -2621396.654328085 0.0
310597.4091562216 -2622959.635190013 0.0
309518.1462022116 -2625885.691396281 0.0
313222.8450640175 -2629101.5644654687 0.0
313506.0402872955 -2632919.996739391 0.0
318511.0746699547 -2635333.7823426416 0.0
317535.239848881 -2639481.4914444615 0.0
314893.96980634 -2643707.7336187386 0.0
312681.35367982043 -2647700.976670326 0.0
314738.1184991818 -2651595.789592339 0.0
315637.03343486757 -2656761.780442964 0.0
310358.2494806648 -2659222.9170886264 0.0
305348.333118552 -2659212.427062732 0.0
301583.0509546695 -2662413.8278819774 0.0
303016.5325853959 -2667428.350267429 0.0
298722.66301507363 -2670838.1669967566 0.0
294251.5595470841 -2672106.539506571 0.0
290190.6488502449 -2672362.6934395 0.0
286536.7614489501 -2671771.721722527 0.0
283041.96630985633 -2670871.172687752 0.0
279868.55136973225 -2669519.3071097755 0.0
277817.0678542202 -2667082.8287663264 0.0
273567.008915199 -2668557.962642954 0.0
272382.0710625296 -2664846.7146306266 0.0
269180.922776501 -2664073.3106058342 0.0
266643.92958445044 -2667620.907504021 0.0
263562.96218107105 -2669000.7478406876 0.0
259921.68178838244 -2670489.260699758 0.0
255827.32530201474 -2671224.816668525 0.0
253219.51059318372 -2674236.9863865357 0.0
254651.349833067 -2677677.069501416 0.0
250897.3270641569 -2680123.70763039 0.0
246712.98155787122 -2681424.236609474 0.0
247226.5836416317 -2685538.5732230805 0.0
247470.70275845873 -2689772.956479425 0.0
250891.65833374046 -2691436.919135824 0.0
252894.35669059493 -2694678.2132739243 0.0
[...]
POINT_DATA 2157
SCALARS vertexId int 1
LOOKUP_TABLE default
5
13
30
50
85
88
89
131
90
134
179
223
271
325
382
446
513
593
689
803
933
1087
1249
1435
1678
1985
2327
2704
3098
3101
3531
3972
4441
4921
5443
5444
5983
5986
5439
4917
5377
5923
6515
7185
7896
8698
9628
10657
10658
11834
13137
14644
16400
14646
14645
14637
16373
16375
16382
16383
14634
14635
16384
14631
13129
13128
14627
14630
16371
16370
16366
16367
14626
13127
11825
10646
9616
8684
8676
8675
8059
8883
8886
9816
10840
12023
13327
14827
16588
18558
20733
23108
25665
28333
31066
31098
28368
25698
25696
25695
23130
23111
20736
18559
16589
14828
14829
16594
18570
20755
23131
25701
28369
28371
25700
25666
28335
31069
33907
36881
36878
33905
36880
39893
42885
45746
45769
48477
48476
45768
42902
39906
36959
36958
36960
39988
42998
45874
48592
51179
51180
51181
51186
51189
48614
48613
45895
43019
40007
36976
33986
31129
28414
31162
34024
34025
34019
31157
28411
25733
23159
20782
18596
16610
16602
16645
18645
20832
23218
25797
28485
31258
34146
37155
40223
40224
43270
43271
46157
48885
51484
53962
56285
56282
56283
58453
60488
62400
64236
65970
67593
67594
67595
69173
69177
69175
67597
65973
65975
67610
67612
69193
70679
69163
69162
67585
65966
65952
64228
64227
62399
64232
65962
65961
64231
62398
62393
60477
60478
62403
64239
65977
67613
69195
69198
67619
69128
70639
72112
72108
70637
72109
73558
73555
73554
72107
70636
69127
69123
69121
67558
69125
69124
69115
70619
72087
72086
70618
69114
69113
67553
65937
64214
65940
67556
69118
70625
72092
73535
74978
76421
77866
79295
78663
80048
81381
82662
83903
85103
83904
82666
82667
82665
81382
81384
81383
80053
80052
78666
78664
77297
75901
75902
77298
78670
78671
77301
75903
75898
74533
74838
76237
77658
79049
79050
80461
81817
83091
84330
85503
86582
87550
88370
89077
89690
90217
90659
91044
91360
91632
91858
92053
92226
92385
92552
92734
92921
93113
93316
93520
93726
93933
94159
94387
94624
94852
95071
95280
95487
95674
95845
95848
96000
96141
96271
96378
96465
96535
96590
96626
96653
96671
96684
96693
96698
96701
96703
96702
96699
96695
96688
96678
96663
96641
96610
96568
96504
96431
96336
96223
96222
96083
95938
95771
95594
95402
95185
94958
94724
94482
94242
94008
93789
93583
93384
93180
92991
92806
92633
92465
92315
92154
91979
91778
91542
91267
90942
90569
90126
89607
88997
88292
87472
86515
85443
84271
83043
81774
80425
79021
77628
76210
74816
74813
73402
71980
70527
69034
67473
65865
64154
64042
65756
67353
68906
68907
68903
67348
65750
64036
62243
60341
58307
56146
53842
51376
51375
48796
46078
43204
40190
43225
43226
43222
40187
37130
40197
43235
46108
46110
46111
48833
48834
51426
53825
56132
58293
60325
62222
64017
64018
65728
65723
64010
62343
64132
65843
67443
68992
70476
71919
73348
74630
76027
77447
78841
78840
80063
81403
80064
78676
78677
77303
76023
74626
73209
73208
73197
73202
73201
73200
74617
74616
74614
73199
73198
71781
73205
73206
73207
74595
75978
74594
73186
71777
71778
73190
73187
71780
70348
71760
71759
71758
70336
68857
67315
68863
70346
71774
73181
73182
71775
73159
74565
74564
75927
75928
75926
74554
73154
73155
71755
70335
70332
70334
71751
73148
74545
75915
76246
77672
79065
79066
77674
76247
74845
73422
74839
74842
76243
76242
74898
76319
77755
76321
76320
77751
79155
77750
77749
77747
77744
77746
77745
76316
76315
76313
74897
73469
72039
70575
69076
67520
65911
64200
62389
60476
58433
56264
53946
51465
48866
46137
48846
51442
53922
56239
58404
60444
62358
64157
65868
65873
67483
69046
70544
72014
73448
73444
73445
74872
76281
76280
74870
73443
72011
72010
70543
72001
73430
74857
76260
74854
74853
73493
73494
74926
76359
76352
76353
74927
73499
72065
70602
69102
67543
65929
64211
62390
64206
65925
67536
69093
70593
72054
73485
73486
73480
74910
76339
77775
79187
79186
77829
79250
79247
77825
76385
74947
73513
73512
72072
72070
73503
73505
74937
76368
76367
77244
75860
75859
75856
74508
74509
74510
74511
75855
77237
75876
75875
75874
74532
73140
73135
73134
71744
71746
70330
71743
73132
74519
74517
73130
71742
71741
70329
68856
68854
67313
65719
64009
64008
65716
65714
67306
68847
70319
71727
71728
73112
73106
74487
73107
71724
70316
68843
68824
68826
67285
65694
63989
62200
60308
58278
56117
53809
51350
48769
46054
43185
40163
37116
34113
31235
28474
25788
23211
20828
18640
16640
14852
13344
13337
14844
16630
18628
20814
23196
25771
28457
31219
34088
37091
40139
43161
46032
48752
51337
53799
56109
58273
60303
62196
63987
65692
67282
68823
70288
71692
71694
73073
73074
71695
71693
71687
71686
71685
73060
73061
74433
74434
74426
73057
73056
72954
72955
72958
72959
72960
72957
71597
71594
72950
71593
71592
70213
68766
67244
65677
67268
68807
67266
65676
63972
63966
63967
63971
63968
62178
63965
65664
67252
68787
68789
68788
68784
70242
71632
71633
70240
68783
67272
68813
70215
71598
70217
68767
68768
68775
70224
70221
68770
67247
65662
63964
62177
60283
58257
58256
60244
62114
63886
65566
63889
62118
62117
63888
62116
62115
60246
58234
56079
53774
51310
48723
46001
43124
40102
37058
37061
40112
43137
46013
48736
51322
53785
56093
58250
60269
60270
62151
63925
62153
62152
62157
63935
63938
63957
62172
62171
62170
60279
58253
58251
58252
60274
60275
62159
62477
62479
62480
62481
60548
58499
58498
56318
53991
53990
53989
51508
48906
51505
53986
56315
58493
58494
60543
62470
62468
60541
60539
60537
58491
57555
59593
59590
59585
57551
55363
53026
50576
47991
47987
50566
47988
50558
53001
55329
53002
53003
53005
53004
50559
50549
47984
47986
50556
52996
55322
55321
55320
52995
50557
50546
50545
50544
47983
50540
50541
47982
50533
47979
45278
46201
48939
46202
43311
40260
37186
34169
37183
37182
37181
40252
40251
37180
37177
34168
31276
28502
25812
23230
20834
18647
18646
18650
20843
23242
23246
20844
23243
23245
23244
23248
23250
23249
23253
25846
28542
31331
34238
37271
37272
34239
31332
28543
28546
31335
34245
37280
34243
34244
37279
40355
40356
43413
40367
43425
40366
37284
37404
40530
40528
37408
34341
31400
28584
25867
25864
23266
25862
28569
31375
31374
34304
37356
40465
43544
40464
37355
34303
31391
31395
31394
28581
28580
28578
31389
34323
37381
40494
40492
37380
34321
34300
31372
31369
31370
31371
31365
34290
34292
31366
34293
31368
31367
34288
37334
40427
40428
37329
34283
31362
28568
28567
31359
34277
37318
40408
37315
37317
37316
35678
38641
35679
35711
38679
35712
35715
35714
32803
35716
32804
30037
30038
30020
30016
30018
30017
30023
30024
30022
27345
24740
27346
24741
27352
27351
27422
27423
24791
22291
24781
24782
24783
24785
24790
27419
27420
27418
24789
22290
22292
24798
24796
27406
24780
22289
22287
22282
24769
27391
27393
24770
22285
19975
19974
19972
19973
22281
24768
24767
22280
22278
19971
19970
17854
15936
15930
15920
17834
19944
22248
24725
24727
22249
19945
19933
17825
15912
15913
15911
15910
14265
12834
11574
11568
12826
14251
12822
11566
10432
9440
8526
8525
7739
7048
6404
5838
5314
4802
4323
4718
4710
4709
4708
4231
3771
3345
2945
2554
2184
1841
1539
1302
1111
950
816
821
967
819
818
961
962
963
964
959
817
957
1124
1318
1556
1859
1861
1896
2185
2559
2951
3352
3785
4251
4733
4734
4735
4732
4250
3859
3423
3425
3861
4322
4798
5311
5836
6402
7046
7734
8516
9426
10412
11547
12799
12802
12801
14142
14143
14144
14145
12718
12816
12818
11564
10429
9438
8524
8408
9311
10285
11403
12649
11404
10286
11401
10284
9309
8406
7629
6948
6311
5745
5219
5212
5213
5737
6302
5742
6303
5738
5214
4705
5206
5729
6288
6286
5732
5209
4704
4228
3766
3338
2939
2551
2182
1840
1538
1301
1288
1283
1517
1285
1284
1109
1270
1497
1273
1274
1105
1108
1278
1279
1281
1280
1269
1494
1495
1493
1492
1778
1781
1779
1780
1812
2104
2462
2841
3245
3681
4141
4621
5131
5658
6219
6857
7542
8314
9218
10187
10189
10188
11291
10184
10183
10250
10251
10252
11364
11368
11367
12599
12602
14005
12603
11369
12613
14022
14019
14018
12612
11416
10292
11409
10289
10290
10291
11408
12655
12666
12525
13924
15530
13926
13927
15535
15534
17434
17435
17437
15540
15542
15541
13929
13930
15547
15550
15549
17457
15548
13931
15552
15551
15557
17468
17469
15556
15555
13933
12528
11283
10177
9211
8308
8307
9198
10157
10169
11271
12504
12507
12508
12511
12510
12509
12514
13909
12513
12512
12502
11270
10167
9205
9197
10156
11253
12486
13876
15475
17362
19438
19440
17361
15473
13875
13871
13870
13732
15319
15324
15323
13733
12376
13747
13748
13746
13744
13745
12378
12380
11151
11152
11150
11167
11168
11165
10073
9116
8243
7485
6805
6174
5617
5096
4589
4104
3650
3218
2816
2437
2083
1765
1777
2103
2461
2839
3243
3677
4135
4614
5121
5642
6198
6834
7513
8275
9154
8277
7515
6836
6829
6832
6833
6831
6830
6210
5653
6213
6850
7534
7538
8306
9188
9189
10142
10143
9190
9193
10148
10147
9192
10057
11147
12371
13736
13738
13739
15229
15230
15228
17070
15223
13653
12293
11077
10006
9054
8201
7446
6764
6765
7448
8203
9061
10015
11087
12300
13661
15234
17083
19145
19144
17082
15240
13663
13662
15236
15235
15241
17092
19158
19160
21419
21418
19159
17094
15243
13664
12301
11088
10016
9063
8206
7453
6772
6141
5585
5060
4560
4073
3624
3196
2792
2414
2065
1751
1483
1482
1490
1762
2078
2429
2810
3214
3643
4095
4579
5084
5605
6162
6793
7472
8226
9089
10042
11127
12346
13705
13707
15291
17151
19220
17152
15288
15287
15286
17115
19183
17121
17120
15266
13686
12322
11106
10951
12144
10953
10956
10955
10954
9900
8963
8140
7411
6726
6725
7409
6727
7412
7414
8148
8149
8150
8160
8996
9938
11001
12200
13548
15097
15098
13553
12204
12206
12208
13558
15110
15090
16911
15091
13545
12198
12197
10999
9935
8992
8991
8990
8959
9046
9997
9048
9049
9998
9047
9993
9995
9044
9028
9968
11037
12244
12246
12248
13603
12247
11039
9970
9026
8189
7438
6756
6125
5566
5042
4537
5028
5552
6109
6741
7427
8177
9015
9959
11029
12234
13589
15150
15179
15182
15181
13622
12268
13564
15122
16949
18990
21226
21227
21234
21235
21233
18997
17058
19111
17065
19119
19114
19113
17060
15218
15216
13650
15120
16948
18988
21222
21223
23678
21221
18986
18985
16947
18979
16943
15119
15118
15117
16939
16938
18971
18972
18973
21202
21200
21199
21203
23641
26263
26256
28973
26257
26254
23638
23637
23629
23630
23631
21192
18968
18967
16936
15116
13563
12213
11009
9944
9000
8165
7419
6731
6102
5546
5021
4531
4054
3604
3175
2773
2398
2049
1736
1472
1265
1459
1719
2025
2369
2744
3143
3574
4023
4503
4993
5513
6071
6697
7378
8109
8929
9858
10899
12086
13406
14933
16737
16736
14932
13405
12085
10898
9857
8927
8106
7374
6692
6065
5506
4981
4491
4010
3562
3129
2730
2729
3123
3556
4002
4481
4969
5492
6049
6678
7357
8090
8913
9846
10889
12079
13398
14920
14921
14924
14925
13410
12093
12090
10905
9865
10845
9817
10847
12041
13353
14867
14892
16685
16686
18694
20901
23321
25931
25928
25933
23322
23316
25926
25868
28588
28591
28590
25869
28586
28585
31401
28587
25871
25870
23267
20853
18651
17161
17160
19234
21501
24002
26655
24003
24005
24006
26649
29383
29386
32222
32224
29385
26650
26680
26681
26684
26682
24025
24023
21514
21564
21565
24076
24082
24083
26749
29481
29482
26745
24081
24080
24066
26724
26727
24068
21555
19273
17189
15317
13731
12369
11145
10056
9101
8229
8536
9454
10455
11608
12870
14305
15976
15977
17904
20034
22351
22352
20038
17905
15987
17918
15988
14312
14313
14314
15994
15995
14315
12874
12876
14319
14321
12877
12879
14326
16012
16013
14327
12881
14332
16020
16021
14339
12888
12886
11612
12885
12884
11611
11610
10460
10462
9460
9459
9455
8540
7748
7060
6416
5854
5335
4823
4343
3877
3440
3442
3882
4351
4836
4837
5356
5880
5887
6453
7097
7785
8571
9491
10489
11646
12922
12923
11647
10490
9492
8573
7784
7094
6448
5879
5354
5371
4852
5374
5904
6478
7125
7816
8613
9528
10531
11691
12964
14434
16140
18089
18092
16143
14442
12972
12971
11695
12970
12974
14444
12973
14409
14408
14410
12944
11670
10508
10597
11766
13053
14539
16252
18219
20377
18220
16253
14540
13054
11768
10600
9579
9578
8665
7871
7172
6511
5922
5921
5919
5839
6406
7051
7742
8533
9447
10443
11586
12847
14282
15949
17867
19987
19988
19986
17866
17865
15946
14277
12844
11601
12866
14302
15974
17902
20033
20027
17897
15971
17899
20029
22346
24858
24852
24853
24854
24856
22344
22343
20026
18256
16285
14566
13080
13078
13077
13082
14572
16298
18255
20416
20417
22783
22784
25333
25369
25380
28042
28043
28048
25384
22821
22815
25370
28030
25376
25374
25373
22817
20443
18274
16300
14648
14647
13138
11835
10660
9632
8703
7902
7193
6522
5958
6567
7246
7249
6569
6568
5961
5959
5407
4876
4388
3921
3477
3039
2644
2257
1910
1596
1356
1162
988
835
707
600
596
517
448
383
326
287
341
286
284
233
187
141
97
61
34
17
